! created by knguyen at Thu Jan 29 15:05:13 CST 2015
! generated using vna/J Version 3.1.2
# Hz S DB R 50.0
070000000 0.00000000 0.00000000 -75.94308983 -30.71200297 0.00000000 0.00000000 0.00000000 0.00000000 
070051020 0.00000000 0.00000000 -82.93278988 32.72294585 0.00000000 0.00000000 0.00000000 0.00000000 
070102040 0.00000000 0.00000000 -82.89704698 126.07686462 0.00000000 0.00000000 0.00000000 0.00000000 
070153060 0.00000000 0.00000000 -82.89704698 36.07686462 0.00000000 0.00000000 0.00000000 0.00000000 
070204080 0.00000000 0.00000000 -90.00000000 180.00000000 0.00000000 0.00000000 0.00000000 0.00000000 
070255100 0.00000000 0.00000000 -82.89704698 36.07686462 0.00000000 0.00000000 0.00000000 0.00000000 
070306120 0.00000000 0.00000000 -90.00000000 180.00000000 0.00000000 0.00000000 0.00000000 0.00000000 
070357140 0.00000000 0.00000000 -90.00000000 180.00000000 0.00000000 0.00000000 0.00000000 0.00000000 
070408160 0.00000000 0.00000000 -90.00000000 180.00000000 0.00000000 0.00000000 0.00000000 0.00000000 
070459180 0.00000000 0.00000000 -82.89704698 36.07686462 0.00000000 0.00000000 0.00000000 0.00000000 
070510200 0.00000000 0.00000000 -90.00000000 180.00000000 0.00000000 0.00000000 0.00000000 0.00000000 
070561220 0.00000000 0.00000000 -82.89704698 36.07686462 0.00000000 0.00000000 0.00000000 0.00000000 
070612240 0.00000000 0.00000000 -90.00000000 180.00000000 0.00000000 0.00000000 0.00000000 0.00000000 
070663260 0.00000000 0.00000000 -90.00000000 180.00000000 0.00000000 0.00000000 0.00000000 0.00000000 
070714280 0.00000000 0.00000000 -90.00000000 180.00000000 0.00000000 0.00000000 0.00000000 0.00000000 
070765300 0.00000000 0.00000000 -82.89704698 36.07686462 0.00000000 0.00000000 0.00000000 0.00000000 
070816320 0.00000000 0.00000000 -82.89704698 36.07686462 0.00000000 0.00000000 0.00000000 0.00000000 
070867340 0.00000000 0.00000000 -82.89704698 36.07686462 0.00000000 0.00000000 0.00000000 0.00000000 
070918360 0.00000000 0.00000000 -82.89704698 36.07686462 0.00000000 0.00000000 0.00000000 0.00000000 
070969380 0.00000000 0.00000000 -90.00000000 180.00000000 0.00000000 0.00000000 0.00000000 0.00000000 
071020400 0.00000000 0.00000000 -90.00000000 180.00000000 0.00000000 0.00000000 0.00000000 0.00000000 
071071420 0.00000000 0.00000000 -90.00000000 180.00000000 0.00000000 0.00000000 0.00000000 0.00000000 
071122440 0.00000000 0.00000000 -90.00000000 180.00000000 0.00000000 0.00000000 0.00000000 0.00000000 
071173460 0.00000000 0.00000000 -90.00000000 180.00000000 0.00000000 0.00000000 0.00000000 0.00000000 
071224480 0.00000000 0.00000000 -90.00000000 180.00000000 0.00000000 0.00000000 0.00000000 0.00000000 
071275500 0.00000000 0.00000000 -90.00000000 180.00000000 0.00000000 0.00000000 0.00000000 0.00000000 
071326520 0.00000000 0.00000000 -82.89704698 36.07686462 0.00000000 0.00000000 0.00000000 0.00000000 
071377540 0.00000000 0.00000000 -90.00000000 180.00000000 0.00000000 0.00000000 0.00000000 0.00000000 
071428560 0.00000000 0.00000000 -82.89704698 36.07686462 0.00000000 0.00000000 0.00000000 0.00000000 
071479580 0.00000000 0.00000000 -90.00000000 180.00000000 0.00000000 0.00000000 0.00000000 0.00000000 
071530600 0.00000000 0.00000000 -90.00000000 180.00000000 0.00000000 0.00000000 0.00000000 0.00000000 
071581620 0.00000000 0.00000000 -90.00000000 180.00000000 0.00000000 0.00000000 0.00000000 0.00000000 
071632640 0.00000000 0.00000000 -82.89704698 -53.92313538 0.00000000 0.00000000 0.00000000 0.00000000 
071683660 0.00000000 0.00000000 -90.00000000 180.00000000 0.00000000 0.00000000 0.00000000 0.00000000 
071734680 0.00000000 0.00000000 -82.89704698 36.07686462 0.00000000 0.00000000 0.00000000 0.00000000 
071785700 0.00000000 0.00000000 -82.89704698 36.07686462 0.00000000 0.00000000 0.00000000 0.00000000 
071836720 0.00000000 0.00000000 -82.89704698 36.07686462 0.00000000 0.00000000 0.00000000 0.00000000 
071887740 0.00000000 0.00000000 -82.89704698 -143.92313538 0.00000000 0.00000000 0.00000000 0.00000000 
071938760 0.00000000 0.00000000 -82.89704698 36.07686462 0.00000000 0.00000000 0.00000000 0.00000000 
071989780 0.00000000 0.00000000 -90.00000000 180.00000000 0.00000000 0.00000000 0.00000000 0.00000000 
072040800 0.00000000 0.00000000 -90.00000000 180.00000000 0.00000000 0.00000000 0.00000000 0.00000000 
072091820 0.00000000 0.00000000 -90.00000000 180.00000000 0.00000000 0.00000000 0.00000000 0.00000000 
072142840 0.00000000 0.00000000 -90.00000000 180.00000000 0.00000000 0.00000000 0.00000000 0.00000000 
072193860 0.00000000 0.00000000 -82.85794873 39.44606170 0.00000000 0.00000000 0.00000000 0.00000000 
072244880 0.00000000 0.00000000 -90.00000000 180.00000000 0.00000000 0.00000000 0.00000000 0.00000000 
072295900 0.00000000 0.00000000 -90.00000000 180.00000000 0.00000000 0.00000000 0.00000000 0.00000000 
072346920 0.00000000 0.00000000 -90.00000000 180.00000000 0.00000000 0.00000000 0.00000000 0.00000000 
072397940 0.00000000 0.00000000 -82.85794873 39.44606170 0.00000000 0.00000000 0.00000000 0.00000000 
072448960 0.00000000 0.00000000 -82.85794873 39.44606170 0.00000000 0.00000000 0.00000000 0.00000000 
072499980 0.00000000 0.00000000 -90.00000000 180.00000000 0.00000000 0.00000000 0.00000000 0.00000000 
072551000 0.00000000 0.00000000 -79.84764877 -5.55393830 0.00000000 0.00000000 0.00000000 0.00000000 
072602020 0.00000000 0.00000000 -90.00000000 180.00000000 0.00000000 0.00000000 0.00000000 0.00000000 
072653040 0.00000000 0.00000000 -82.85794873 39.44606170 0.00000000 0.00000000 0.00000000 0.00000000 
072704060 0.00000000 0.00000000 -82.85794873 129.44606170 0.00000000 0.00000000 0.00000000 0.00000000 
072755080 0.00000000 0.00000000 -90.00000000 180.00000000 0.00000000 0.00000000 0.00000000 0.00000000 
072806100 0.00000000 0.00000000 -90.00000000 180.00000000 0.00000000 0.00000000 0.00000000 0.00000000 
072857120 0.00000000 0.00000000 -90.00000000 180.00000000 0.00000000 0.00000000 0.00000000 0.00000000 
072908140 0.00000000 0.00000000 -90.00000000 180.00000000 0.00000000 0.00000000 0.00000000 0.00000000 
072959160 0.00000000 0.00000000 -90.00000000 180.00000000 0.00000000 0.00000000 0.00000000 0.00000000 
073010180 0.00000000 0.00000000 -90.00000000 180.00000000 0.00000000 0.00000000 0.00000000 0.00000000 
073061200 0.00000000 0.00000000 -90.00000000 180.00000000 0.00000000 0.00000000 0.00000000 0.00000000 
073112220 0.00000000 0.00000000 -90.00000000 180.00000000 0.00000000 0.00000000 0.00000000 0.00000000 
073163240 0.00000000 0.00000000 -82.85794873 -140.55393830 0.00000000 0.00000000 0.00000000 0.00000000 
073214260 0.00000000 0.00000000 -90.00000000 180.00000000 0.00000000 0.00000000 0.00000000 0.00000000 
073265280 0.00000000 0.00000000 -90.00000000 180.00000000 0.00000000 0.00000000 0.00000000 0.00000000 
073316300 0.00000000 0.00000000 -90.00000000 180.00000000 0.00000000 0.00000000 0.00000000 0.00000000 
073367320 0.00000000 0.00000000 -90.00000000 180.00000000 0.00000000 0.00000000 0.00000000 0.00000000 
073418340 0.00000000 0.00000000 -90.00000000 180.00000000 0.00000000 0.00000000 0.00000000 0.00000000 
073469360 0.00000000 0.00000000 -90.00000000 180.00000000 0.00000000 0.00000000 0.00000000 0.00000000 
073520380 0.00000000 0.00000000 -90.00000000 180.00000000 0.00000000 0.00000000 0.00000000 0.00000000 
073571400 0.00000000 0.00000000 -82.85794873 39.44606170 0.00000000 0.00000000 0.00000000 0.00000000 
073622420 0.00000000 0.00000000 -90.00000000 180.00000000 0.00000000 0.00000000 0.00000000 0.00000000 
073673440 0.00000000 0.00000000 -90.00000000 180.00000000 0.00000000 0.00000000 0.00000000 0.00000000 
073724460 0.00000000 0.00000000 -90.00000000 180.00000000 0.00000000 0.00000000 0.00000000 0.00000000 
073775480 0.00000000 0.00000000 -82.85794873 39.44606170 0.00000000 0.00000000 0.00000000 0.00000000 
073826500 0.00000000 0.00000000 -90.00000000 180.00000000 0.00000000 0.00000000 0.00000000 0.00000000 
073877520 0.00000000 0.00000000 -90.00000000 180.00000000 0.00000000 0.00000000 0.00000000 0.00000000 
073928540 0.00000000 0.00000000 -82.85794873 129.44606170 0.00000000 0.00000000 0.00000000 0.00000000 
073979560 0.00000000 0.00000000 -90.00000000 180.00000000 0.00000000 0.00000000 0.00000000 0.00000000 
074030580 0.00000000 0.00000000 -82.85794873 129.44606170 0.00000000 0.00000000 0.00000000 0.00000000 
074081600 0.00000000 0.00000000 -90.00000000 180.00000000 0.00000000 0.00000000 0.00000000 0.00000000 
074132620 0.00000000 0.00000000 -90.00000000 180.00000000 0.00000000 0.00000000 0.00000000 0.00000000 
074183640 0.00000000 0.00000000 -90.00000000 180.00000000 0.00000000 0.00000000 0.00000000 0.00000000 
074234660 0.00000000 0.00000000 -90.00000000 180.00000000 0.00000000 0.00000000 0.00000000 0.00000000 
074285680 0.00000000 0.00000000 -90.00000000 180.00000000 0.00000000 0.00000000 0.00000000 0.00000000 
074336700 0.00000000 0.00000000 -90.00000000 180.00000000 0.00000000 0.00000000 0.00000000 0.00000000 
074387720 0.00000000 0.00000000 -90.00000000 180.00000000 0.00000000 0.00000000 0.00000000 0.00000000 
074438740 0.00000000 0.00000000 -82.81728160 42.79672638 0.00000000 0.00000000 0.00000000 0.00000000 
074489760 0.00000000 0.00000000 -90.00000000 180.00000000 0.00000000 0.00000000 0.00000000 0.00000000 
074540780 0.00000000 0.00000000 -82.81728160 42.79672638 0.00000000 0.00000000 0.00000000 0.00000000 
074591800 0.00000000 0.00000000 -90.00000000 180.00000000 0.00000000 0.00000000 0.00000000 0.00000000 
074642820 0.00000000 0.00000000 -90.00000000 180.00000000 0.00000000 0.00000000 0.00000000 0.00000000 
074693840 0.00000000 0.00000000 -82.81728160 42.79672638 0.00000000 0.00000000 0.00000000 0.00000000 
074744860 0.00000000 0.00000000 -90.00000000 180.00000000 0.00000000 0.00000000 0.00000000 0.00000000 
074795880 0.00000000 0.00000000 -90.00000000 180.00000000 0.00000000 0.00000000 0.00000000 0.00000000 
074846900 0.00000000 0.00000000 -90.00000000 180.00000000 0.00000000 0.00000000 0.00000000 0.00000000 
074897920 0.00000000 0.00000000 -82.81728160 42.79672638 0.00000000 0.00000000 0.00000000 0.00000000 
074948940 0.00000000 0.00000000 -82.81728160 132.79672638 0.00000000 0.00000000 0.00000000 0.00000000 
074999960 0.00000000 0.00000000 -90.00000000 180.00000000 0.00000000 0.00000000 0.00000000 0.00000000 
075050980 0.00000000 0.00000000 -90.00000000 180.00000000 0.00000000 0.00000000 0.00000000 0.00000000 
075102000 0.00000000 0.00000000 -90.00000000 180.00000000 0.00000000 0.00000000 0.00000000 0.00000000 
075153020 0.00000000 0.00000000 -90.00000000 180.00000000 0.00000000 0.00000000 0.00000000 0.00000000 
075204040 0.00000000 0.00000000 -82.81728160 42.79672638 0.00000000 0.00000000 0.00000000 0.00000000 
075255060 0.00000000 0.00000000 -79.80698164 87.79672638 0.00000000 0.00000000 0.00000000 0.00000000 
075306080 0.00000000 0.00000000 -82.81728160 42.79672638 0.00000000 0.00000000 0.00000000 0.00000000 
075357100 0.00000000 0.00000000 -82.81728160 42.79672638 0.00000000 0.00000000 0.00000000 0.00000000 
075408120 0.00000000 0.00000000 -82.81728160 42.79672638 0.00000000 0.00000000 0.00000000 0.00000000 
075459140 0.00000000 0.00000000 -90.00000000 180.00000000 0.00000000 0.00000000 0.00000000 0.00000000 
075510160 0.00000000 0.00000000 -90.00000000 180.00000000 0.00000000 0.00000000 0.00000000 0.00000000 
075561180 0.00000000 0.00000000 -90.00000000 180.00000000 0.00000000 0.00000000 0.00000000 0.00000000 
075612200 0.00000000 0.00000000 -90.00000000 180.00000000 0.00000000 0.00000000 0.00000000 0.00000000 
075663220 0.00000000 0.00000000 -82.81728160 42.79672638 0.00000000 0.00000000 0.00000000 0.00000000 
075714240 0.00000000 0.00000000 -82.81728160 42.79672638 0.00000000 0.00000000 0.00000000 0.00000000 
075765260 0.00000000 0.00000000 -90.00000000 180.00000000 0.00000000 0.00000000 0.00000000 0.00000000 
075816280 0.00000000 0.00000000 -90.00000000 180.00000000 0.00000000 0.00000000 0.00000000 0.00000000 
075867300 0.00000000 0.00000000 -90.00000000 180.00000000 0.00000000 0.00000000 0.00000000 0.00000000 
075918320 0.00000000 0.00000000 -90.00000000 180.00000000 0.00000000 0.00000000 0.00000000 0.00000000 
075969340 0.00000000 0.00000000 -82.81728160 42.79672638 0.00000000 0.00000000 0.00000000 0.00000000 
076020360 0.00000000 0.00000000 -90.00000000 180.00000000 0.00000000 0.00000000 0.00000000 0.00000000 
076071380 0.00000000 0.00000000 -90.00000000 180.00000000 0.00000000 0.00000000 0.00000000 0.00000000 
076122400 0.00000000 0.00000000 -82.77521095 136.15388496 0.00000000 0.00000000 0.00000000 0.00000000 
076173420 0.00000000 0.00000000 -90.00000000 180.00000000 0.00000000 0.00000000 0.00000000 0.00000000 
076224440 0.00000000 0.00000000 -90.00000000 180.00000000 0.00000000 0.00000000 0.00000000 0.00000000 
076275460 0.00000000 0.00000000 -90.00000000 180.00000000 0.00000000 0.00000000 0.00000000 0.00000000 
076326480 0.00000000 0.00000000 -90.00000000 180.00000000 0.00000000 0.00000000 0.00000000 0.00000000 
076377500 0.00000000 0.00000000 -82.77521095 46.15388496 0.00000000 0.00000000 0.00000000 0.00000000 
076428520 0.00000000 0.00000000 -82.77521095 136.15388496 0.00000000 0.00000000 0.00000000 0.00000000 
076479540 0.00000000 0.00000000 -90.00000000 180.00000000 0.00000000 0.00000000 0.00000000 0.00000000 
076530560 0.00000000 0.00000000 -90.00000000 180.00000000 0.00000000 0.00000000 0.00000000 0.00000000 
076581580 0.00000000 0.00000000 -90.00000000 180.00000000 0.00000000 0.00000000 0.00000000 0.00000000 
076632600 0.00000000 0.00000000 -82.77521095 46.15388496 0.00000000 0.00000000 0.00000000 0.00000000 
076683620 0.00000000 0.00000000 -90.00000000 180.00000000 0.00000000 0.00000000 0.00000000 0.00000000 
076734640 0.00000000 0.00000000 -90.00000000 180.00000000 0.00000000 0.00000000 0.00000000 0.00000000 
076785660 0.00000000 0.00000000 -90.00000000 180.00000000 0.00000000 0.00000000 0.00000000 0.00000000 
076836680 0.00000000 0.00000000 -90.00000000 180.00000000 0.00000000 0.00000000 0.00000000 0.00000000 
076887700 0.00000000 0.00000000 -90.00000000 180.00000000 0.00000000 0.00000000 0.00000000 0.00000000 
076938720 0.00000000 0.00000000 -90.00000000 180.00000000 0.00000000 0.00000000 0.00000000 0.00000000 
076989740 0.00000000 0.00000000 -90.00000000 180.00000000 0.00000000 0.00000000 0.00000000 0.00000000 
077040760 0.00000000 0.00000000 -90.00000000 180.00000000 0.00000000 0.00000000 0.00000000 0.00000000 
077091780 0.00000000 0.00000000 -90.00000000 180.00000000 0.00000000 0.00000000 0.00000000 0.00000000 
077142800 0.00000000 0.00000000 -90.00000000 180.00000000 0.00000000 0.00000000 0.00000000 0.00000000 
077193820 0.00000000 0.00000000 -82.77521095 46.15388496 0.00000000 0.00000000 0.00000000 0.00000000 
077244840 0.00000000 0.00000000 -79.76491099 91.15388496 0.00000000 0.00000000 0.00000000 0.00000000 
077295860 0.00000000 0.00000000 -90.00000000 180.00000000 0.00000000 0.00000000 0.00000000 0.00000000 
077346880 0.00000000 0.00000000 -82.77521095 46.15388496 0.00000000 0.00000000 0.00000000 0.00000000 
077397900 0.00000000 0.00000000 -90.00000000 180.00000000 0.00000000 0.00000000 0.00000000 0.00000000 
077448920 0.00000000 0.00000000 -90.00000000 180.00000000 0.00000000 0.00000000 0.00000000 0.00000000 
077499940 0.00000000 0.00000000 -90.00000000 180.00000000 0.00000000 0.00000000 0.00000000 0.00000000 
077550960 0.00000000 0.00000000 -82.77521095 -133.84611504 0.00000000 0.00000000 0.00000000 0.00000000 
077601980 0.00000000 0.00000000 -90.00000000 180.00000000 0.00000000 0.00000000 0.00000000 0.00000000 
077653000 0.00000000 0.00000000 -82.77521095 46.15388496 0.00000000 0.00000000 0.00000000 0.00000000 
077704020 0.00000000 0.00000000 -82.77521095 -43.84611504 0.00000000 0.00000000 0.00000000 0.00000000 
077755040 0.00000000 0.00000000 -90.00000000 180.00000000 0.00000000 0.00000000 0.00000000 0.00000000 
077806060 0.00000000 0.00000000 -90.00000000 180.00000000 0.00000000 0.00000000 0.00000000 0.00000000 
077857080 0.00000000 0.00000000 -90.00000000 180.00000000 0.00000000 0.00000000 0.00000000 0.00000000 
077908100 0.00000000 0.00000000 -82.77521095 -133.84611504 0.00000000 0.00000000 0.00000000 0.00000000 
077959120 0.00000000 0.00000000 -90.00000000 180.00000000 0.00000000 0.00000000 0.00000000 0.00000000 
078010140 0.00000000 0.00000000 -82.77521095 46.15388496 0.00000000 0.00000000 0.00000000 0.00000000 
078061160 0.00000000 0.00000000 -79.71815435 -175.50914648 0.00000000 0.00000000 0.00000000 0.00000000 
078112180 0.00000000 0.00000000 -79.71815435 -175.50914648 0.00000000 0.00000000 0.00000000 0.00000000 
078163200 0.00000000 0.00000000 -82.72845431 139.49085352 0.00000000 0.00000000 0.00000000 0.00000000 
078214220 0.00000000 0.00000000 -79.71815435 -175.50914648 0.00000000 0.00000000 0.00000000 0.00000000 
078265240 0.00000000 0.00000000 -79.71815435 -175.50914648 0.00000000 0.00000000 0.00000000 0.00000000 
078316260 0.00000000 0.00000000 -75.73875426 166.05590469 0.00000000 0.00000000 0.00000000 0.00000000 
078367280 0.00000000 0.00000000 -82.72845431 139.49085352 0.00000000 0.00000000 0.00000000 0.00000000 
078418300 0.00000000 0.00000000 -79.71815435 -175.50914648 0.00000000 0.00000000 0.00000000 0.00000000 
078469320 0.00000000 0.00000000 -79.71815435 -175.50914648 0.00000000 0.00000000 0.00000000 0.00000000 
078520340 0.00000000 0.00000000 -79.71815435 -175.50914648 0.00000000 0.00000000 0.00000000 0.00000000 
078571360 0.00000000 0.00000000 -79.71815435 -175.50914648 0.00000000 0.00000000 0.00000000 0.00000000 
078622380 0.00000000 0.00000000 -82.72845431 139.49085352 0.00000000 0.00000000 0.00000000 0.00000000 
078673400 0.00000000 0.00000000 -79.71815435 -175.50914648 0.00000000 0.00000000 0.00000000 0.00000000 
078724420 0.00000000 0.00000000 -75.73875426 166.05590469 0.00000000 0.00000000 0.00000000 0.00000000 
078775440 0.00000000 0.00000000 -79.71815435 -175.50914648 0.00000000 0.00000000 0.00000000 0.00000000 
078826460 0.00000000 0.00000000 -79.71815435 -175.50914648 0.00000000 0.00000000 0.00000000 0.00000000 
078877480 0.00000000 0.00000000 -79.71815435 -175.50914648 0.00000000 0.00000000 0.00000000 0.00000000 
078928500 0.00000000 0.00000000 -82.72845431 139.49085352 0.00000000 0.00000000 0.00000000 0.00000000 
078979520 0.00000000 0.00000000 -79.71815435 -175.50914648 0.00000000 0.00000000 0.00000000 0.00000000 
079030540 0.00000000 0.00000000 -79.71815435 -175.50914648 0.00000000 0.00000000 0.00000000 0.00000000 
079081560 0.00000000 0.00000000 -79.71815435 -175.50914648 0.00000000 0.00000000 0.00000000 0.00000000 
079132580 0.00000000 0.00000000 -76.70785439 139.49085352 0.00000000 0.00000000 0.00000000 0.00000000 
079183600 0.00000000 0.00000000 -79.71815435 -175.50914648 0.00000000 0.00000000 0.00000000 0.00000000 
079234620 0.00000000 0.00000000 -79.71815435 -175.50914648 0.00000000 0.00000000 0.00000000 0.00000000 
079285640 0.00000000 0.00000000 -79.71815435 -175.50914648 0.00000000 0.00000000 0.00000000 0.00000000 
079336660 0.00000000 0.00000000 -82.72845431 139.49085352 0.00000000 0.00000000 0.00000000 0.00000000 
079387680 0.00000000 0.00000000 -79.71815435 -175.50914648 0.00000000 0.00000000 0.00000000 0.00000000 
079438700 0.00000000 0.00000000 -75.73875426 166.05590469 0.00000000 0.00000000 0.00000000 0.00000000 
079489720 0.00000000 0.00000000 -82.72845431 139.49085352 0.00000000 0.00000000 0.00000000 0.00000000 
079540740 0.00000000 0.00000000 -79.71815435 -175.50914648 0.00000000 0.00000000 0.00000000 0.00000000 
079591760 0.00000000 0.00000000 -79.71815435 -175.50914648 0.00000000 0.00000000 0.00000000 0.00000000 
079642780 0.00000000 0.00000000 -79.71815435 -175.50914648 0.00000000 0.00000000 0.00000000 0.00000000 
079693800 0.00000000 0.00000000 -75.73875426 166.05590469 0.00000000 0.00000000 0.00000000 0.00000000 
079744820 0.00000000 0.00000000 -79.71815435 -175.50914648 0.00000000 0.00000000 0.00000000 0.00000000 
079795840 0.00000000 0.00000000 -82.72845431 139.49085352 0.00000000 0.00000000 0.00000000 0.00000000 
079846860 0.00000000 0.00000000 -79.71815435 -175.50914648 0.00000000 0.00000000 0.00000000 0.00000000 
079897880 0.00000000 0.00000000 -75.73875426 166.05590469 0.00000000 0.00000000 0.00000000 0.00000000 
079948900 0.00000000 0.00000000 -79.71815435 -175.50914648 0.00000000 0.00000000 0.00000000 0.00000000 
079999920 0.00000000 0.00000000 -79.71815435 -175.50914648 0.00000000 0.00000000 0.00000000 0.00000000 
080050940 0.00000000 0.00000000 -82.72845431 139.49085352 0.00000000 0.00000000 0.00000000 0.00000000 
080101960 0.00000000 0.00000000 -82.68250117 52.84569157 0.00000000 0.00000000 0.00000000 0.00000000 
080152980 0.00000000 0.00000000 -90.00000000 180.00000000 0.00000000 0.00000000 0.00000000 0.00000000 
080204000 0.00000000 0.00000000 -79.67220122 7.84569157 0.00000000 0.00000000 0.00000000 0.00000000 
080255020 0.00000000 0.00000000 -90.00000000 180.00000000 0.00000000 0.00000000 0.00000000 0.00000000 
080306040 0.00000000 0.00000000 -90.00000000 180.00000000 0.00000000 0.00000000 0.00000000 0.00000000 
080357060 0.00000000 0.00000000 -90.00000000 180.00000000 0.00000000 0.00000000 0.00000000 0.00000000 
080408080 0.00000000 0.00000000 -90.00000000 180.00000000 0.00000000 0.00000000 0.00000000 0.00000000 
080459100 0.00000000 0.00000000 -90.00000000 180.00000000 0.00000000 0.00000000 0.00000000 0.00000000 
080510120 0.00000000 0.00000000 -82.68250117 52.84569157 0.00000000 0.00000000 0.00000000 0.00000000 
080561140 0.00000000 0.00000000 -82.68250117 52.84569157 0.00000000 0.00000000 0.00000000 0.00000000 
080612160 0.00000000 0.00000000 -90.00000000 180.00000000 0.00000000 0.00000000 0.00000000 0.00000000 
080663180 0.00000000 0.00000000 -90.00000000 180.00000000 0.00000000 0.00000000 0.00000000 0.00000000 
080714200 0.00000000 0.00000000 -90.00000000 180.00000000 0.00000000 0.00000000 0.00000000 0.00000000 
080765220 0.00000000 0.00000000 -79.67220122 -172.15430843 0.00000000 0.00000000 0.00000000 0.00000000 
080816240 0.00000000 0.00000000 -90.00000000 180.00000000 0.00000000 0.00000000 0.00000000 0.00000000 
080867260 0.00000000 0.00000000 -82.68250117 52.84569157 0.00000000 0.00000000 0.00000000 0.00000000 
080918280 0.00000000 0.00000000 -90.00000000 180.00000000 0.00000000 0.00000000 0.00000000 0.00000000 
080969300 0.00000000 0.00000000 -90.00000000 180.00000000 0.00000000 0.00000000 0.00000000 0.00000000 
081020320 0.00000000 0.00000000 -82.68250117 -127.15430843 0.00000000 0.00000000 0.00000000 0.00000000 
081071340 0.00000000 0.00000000 -90.00000000 180.00000000 0.00000000 0.00000000 0.00000000 0.00000000 
081122360 0.00000000 0.00000000 -82.68250117 52.84569157 0.00000000 0.00000000 0.00000000 0.00000000 
081173380 0.00000000 0.00000000 -90.00000000 180.00000000 0.00000000 0.00000000 0.00000000 0.00000000 
081224400 0.00000000 0.00000000 -82.68250117 -127.15430843 0.00000000 0.00000000 0.00000000 0.00000000 
081275420 0.00000000 0.00000000 -90.00000000 180.00000000 0.00000000 0.00000000 0.00000000 0.00000000 
081326440 0.00000000 0.00000000 -90.00000000 180.00000000 0.00000000 0.00000000 0.00000000 0.00000000 
081377460 0.00000000 0.00000000 -90.00000000 180.00000000 0.00000000 0.00000000 0.00000000 0.00000000 
081428480 0.00000000 0.00000000 -90.00000000 180.00000000 0.00000000 0.00000000 0.00000000 0.00000000 
081479500 0.00000000 0.00000000 -82.68250117 52.84569157 0.00000000 0.00000000 0.00000000 0.00000000 
081530520 0.00000000 0.00000000 -79.67220122 97.84569157 0.00000000 0.00000000 0.00000000 0.00000000 
081581540 0.00000000 0.00000000 -90.00000000 180.00000000 0.00000000 0.00000000 0.00000000 0.00000000 
081632560 0.00000000 0.00000000 -82.68250117 -127.15430843 0.00000000 0.00000000 0.00000000 0.00000000 
081683580 0.00000000 0.00000000 -82.68250117 52.84569157 0.00000000 0.00000000 0.00000000 0.00000000 
081734600 0.00000000 0.00000000 -90.00000000 180.00000000 0.00000000 0.00000000 0.00000000 0.00000000 
081785620 0.00000000 0.00000000 -90.00000000 180.00000000 0.00000000 0.00000000 0.00000000 0.00000000 
081836640 0.00000000 0.00000000 -90.00000000 180.00000000 0.00000000 0.00000000 0.00000000 0.00000000 
081887660 0.00000000 0.00000000 -90.00000000 180.00000000 0.00000000 0.00000000 0.00000000 0.00000000 
081938680 0.00000000 0.00000000 -82.68250117 142.84569157 0.00000000 0.00000000 0.00000000 0.00000000 
081989700 0.00000000 0.00000000 -90.00000000 180.00000000 0.00000000 0.00000000 0.00000000 0.00000000 
082040720 0.00000000 0.00000000 -82.68250117 52.84569157 0.00000000 0.00000000 0.00000000 0.00000000 
082091740 0.00000000 0.00000000 -76.61194215 56.18670331 0.00000000 0.00000000 0.00000000 0.00000000 
082142760 0.00000000 0.00000000 -82.63254207 56.18670331 0.00000000 0.00000000 0.00000000 0.00000000 
082193780 0.00000000 0.00000000 -82.63254207 56.18670331 0.00000000 0.00000000 0.00000000 0.00000000 
082244800 0.00000000 0.00000000 -82.63254207 56.18670331 0.00000000 0.00000000 0.00000000 0.00000000 
082295820 0.00000000 0.00000000 -82.63254207 56.18670331 0.00000000 0.00000000 0.00000000 0.00000000 
082346840 0.00000000 0.00000000 -82.63254207 56.18670331 0.00000000 0.00000000 0.00000000 0.00000000 
082397860 0.00000000 0.00000000 -76.61194215 56.18670331 0.00000000 0.00000000 0.00000000 0.00000000 
082448880 0.00000000 0.00000000 -79.62224211 11.18670331 0.00000000 0.00000000 0.00000000 0.00000000 
082499900 0.00000000 0.00000000 -82.63254207 56.18670331 0.00000000 0.00000000 0.00000000 0.00000000 
082550920 0.00000000 0.00000000 -82.63254207 56.18670331 0.00000000 0.00000000 0.00000000 0.00000000 
082601940 0.00000000 0.00000000 -82.63254207 56.18670331 0.00000000 0.00000000 0.00000000 0.00000000 
082652960 0.00000000 0.00000000 -90.00000000 180.00000000 0.00000000 0.00000000 0.00000000 0.00000000 
082703980 0.00000000 0.00000000 -76.61194215 56.18670331 0.00000000 0.00000000 0.00000000 0.00000000 
082755000 0.00000000 0.00000000 -90.00000000 180.00000000 0.00000000 0.00000000 0.00000000 0.00000000 
082806020 0.00000000 0.00000000 -79.62224211 101.18670331 0.00000000 0.00000000 0.00000000 0.00000000 
082857040 0.00000000 0.00000000 -76.61194215 56.18670331 0.00000000 0.00000000 0.00000000 0.00000000 
082908060 0.00000000 0.00000000 -76.61194215 56.18670331 0.00000000 0.00000000 0.00000000 0.00000000 
082959080 0.00000000 0.00000000 -82.63254207 56.18670331 0.00000000 0.00000000 0.00000000 0.00000000 
083010100 0.00000000 0.00000000 -82.63254207 56.18670331 0.00000000 0.00000000 0.00000000 0.00000000 
083061120 0.00000000 0.00000000 -82.63254207 56.18670331 0.00000000 0.00000000 0.00000000 0.00000000 
083112140 0.00000000 0.00000000 -82.63254207 56.18670331 0.00000000 0.00000000 0.00000000 0.00000000 
083163160 0.00000000 0.00000000 -82.63254207 56.18670331 0.00000000 0.00000000 0.00000000 0.00000000 
083214180 0.00000000 0.00000000 -90.00000000 180.00000000 0.00000000 0.00000000 0.00000000 0.00000000 
083265200 0.00000000 0.00000000 -82.63254207 56.18670331 0.00000000 0.00000000 0.00000000 0.00000000 
083316220 0.00000000 0.00000000 -82.63254207 56.18670331 0.00000000 0.00000000 0.00000000 0.00000000 
083367240 0.00000000 0.00000000 -90.00000000 180.00000000 0.00000000 0.00000000 0.00000000 0.00000000 
083418260 0.00000000 0.00000000 -82.63254207 56.18670331 0.00000000 0.00000000 0.00000000 0.00000000 
083469280 0.00000000 0.00000000 -82.63254207 56.18670331 0.00000000 0.00000000 0.00000000 0.00000000 
083520300 0.00000000 0.00000000 -76.61194215 56.18670331 0.00000000 0.00000000 0.00000000 0.00000000 
083571320 0.00000000 0.00000000 -79.62224211 101.18670331 0.00000000 0.00000000 0.00000000 0.00000000 
083622340 0.00000000 0.00000000 -82.63254207 56.18670331 0.00000000 0.00000000 0.00000000 0.00000000 
083673360 0.00000000 0.00000000 -76.61194215 56.18670331 0.00000000 0.00000000 0.00000000 0.00000000 
083724380 0.00000000 0.00000000 -76.61194215 56.18670331 0.00000000 0.00000000 0.00000000 0.00000000 
083775400 0.00000000 0.00000000 -79.62224211 101.18670331 0.00000000 0.00000000 0.00000000 0.00000000 
083826420 0.00000000 0.00000000 -79.62224211 11.18670331 0.00000000 0.00000000 0.00000000 0.00000000 
083877440 0.00000000 0.00000000 -82.63254207 56.18670331 0.00000000 0.00000000 0.00000000 0.00000000 
083928460 0.00000000 0.00000000 -82.63254207 56.18670331 0.00000000 0.00000000 0.00000000 0.00000000 
083979480 0.00000000 0.00000000 -90.00000000 180.00000000 0.00000000 0.00000000 0.00000000 0.00000000 
084030500 0.00000000 0.00000000 -82.63254207 56.18670331 0.00000000 0.00000000 0.00000000 0.00000000 
084081520 0.00000000 0.00000000 -90.00000000 180.00000000 0.00000000 0.00000000 0.00000000 0.00000000 
084132540 0.00000000 0.00000000 -82.58006044 59.53855616 0.00000000 0.00000000 0.00000000 0.00000000 
084183560 0.00000000 0.00000000 -90.00000000 180.00000000 0.00000000 0.00000000 0.00000000 0.00000000 
084234580 0.00000000 0.00000000 -90.00000000 180.00000000 0.00000000 0.00000000 0.00000000 0.00000000 
084285600 0.00000000 0.00000000 -90.00000000 180.00000000 0.00000000 0.00000000 0.00000000 0.00000000 
084336620 0.00000000 0.00000000 -90.00000000 180.00000000 0.00000000 0.00000000 0.00000000 0.00000000 
084387640 0.00000000 0.00000000 -90.00000000 180.00000000 0.00000000 0.00000000 0.00000000 0.00000000 
084438660 0.00000000 0.00000000 -90.00000000 180.00000000 0.00000000 0.00000000 0.00000000 0.00000000 
084489680 0.00000000 0.00000000 -90.00000000 180.00000000 0.00000000 0.00000000 0.00000000 0.00000000 
084540700 0.00000000 0.00000000 -90.00000000 180.00000000 0.00000000 0.00000000 0.00000000 0.00000000 
084591720 0.00000000 0.00000000 -90.00000000 180.00000000 0.00000000 0.00000000 0.00000000 0.00000000 
084642740 0.00000000 0.00000000 -90.00000000 180.00000000 0.00000000 0.00000000 0.00000000 0.00000000 
084693760 0.00000000 0.00000000 -82.58006044 149.53855616 0.00000000 0.00000000 0.00000000 0.00000000 
084744780 0.00000000 0.00000000 -90.00000000 180.00000000 0.00000000 0.00000000 0.00000000 0.00000000 