! created by knguyen at Thu Feb 05 12:29:57 CST 2015
! generated using vna/J Version 3.1.2
# Hz S DB R 50
070000000 0.00000000 0.00000000 0.24599341 113.06166721 0.00000000 0.00000000 0.00000000 0.00000000 
070036540 0.00000000 0.00000000 0.19268720 113.51484768 0.00000000 0.00000000 0.00000000 0.00000000 
070073080 0.00000000 0.00000000 0.19064954 113.81739827 0.00000000 0.00000000 0.00000000 0.00000000 
070109620 0.00000000 0.00000000 0.19001451 113.75740223 0.00000000 0.00000000 0.00000000 0.00000000 
070146160 0.00000000 0.00000000 0.19073968 113.69839697 0.00000000 0.00000000 0.00000000 0.00000000 
070182700 0.00000000 0.00000000 0.19210233 113.95796221 0.00000000 0.00000000 0.00000000 0.00000000 
070219240 0.00000000 0.00000000 0.19149570 113.89794985 0.00000000 0.00000000 0.00000000 0.00000000 
070255780 0.00000000 0.00000000 0.18921560 113.84025973 0.00000000 0.00000000 0.00000000 0.00000000 
070292320 0.00000000 0.00000000 0.19320273 114.11350906 0.00000000 0.00000000 0.00000000 0.00000000 
070328860 0.00000000 0.00000000 0.19244878 114.04792044 0.00000000 0.00000000 0.00000000 0.00000000 
070365400 0.00000000 0.00000000 0.19271711 114.32229482 0.00000000 0.00000000 0.00000000 0.00000000 
070401940 0.00000000 0.00000000 0.19249278 114.25889912 0.00000000 0.00000000 0.00000000 0.00000000 
070438480 0.00000000 0.00000000 0.19245124 114.20105736 0.00000000 0.00000000 0.00000000 0.00000000 
070475020 0.00000000 0.00000000 0.19529702 114.46653956 0.00000000 0.00000000 0.00000000 0.00000000 
070511560 0.00000000 0.00000000 0.19391772 114.39314810 0.00000000 0.00000000 0.00000000 0.00000000 
070548100 0.00000000 0.00000000 0.19441022 114.33752191 0.00000000 0.00000000 0.00000000 0.00000000 
070584640 0.00000000 0.00000000 0.19574819 114.61476714 0.00000000 0.00000000 0.00000000 0.00000000 
070621180 0.00000000 0.00000000 0.19558374 114.55135377 0.00000000 0.00000000 0.00000000 0.00000000 
070657720 0.00000000 0.00000000 0.19458625 114.48903906 0.00000000 0.00000000 0.00000000 0.00000000 
070694260 0.00000000 0.00000000 0.19691511 114.75403502 0.00000000 0.00000000 0.00000000 0.00000000 
070730800 0.00000000 0.00000000 0.19728604 114.69284947 0.00000000 0.00000000 0.00000000 0.00000000 
070767340 0.00000000 0.00000000 0.19867021 114.95704093 0.00000000 0.00000000 0.00000000 0.00000000 
070803880 0.00000000 0.00000000 0.19771273 114.89468765 0.00000000 0.00000000 0.00000000 0.00000000 
070840420 0.00000000 0.00000000 0.19642426 114.83564311 0.00000000 0.00000000 0.00000000 0.00000000 
070876960 0.00000000 0.00000000 0.19858707 115.09761660 0.00000000 0.00000000 0.00000000 0.00000000 
070913500 0.00000000 0.00000000 0.19697500 115.04186672 0.00000000 0.00000000 0.00000000 0.00000000 
070950040 0.00000000 0.00000000 0.19674220 114.97283103 0.00000000 0.00000000 0.00000000 0.00000000 
070986580 0.00000000 0.00000000 0.19674574 115.24264002 0.00000000 0.00000000 0.00000000 0.00000000 
071023120 0.00000000 0.00000000 0.19719627 115.18143897 0.00000000 0.00000000 0.00000000 0.00000000 
071059660 0.00000000 0.00000000 0.19731223 115.12355319 0.00000000 0.00000000 0.00000000 0.00000000 
071096200 0.00000000 0.00000000 0.20182671 115.37342120 0.00000000 0.00000000 0.00000000 0.00000000 
071132740 0.00000000 0.00000000 0.19992326 115.32089448 0.00000000 0.00000000 0.00000000 0.00000000 
071169280 0.00000000 0.00000000 0.19898521 115.59525584 0.00000000 0.00000000 0.00000000 0.00000000 
071205820 0.00000000 0.00000000 0.19863758 115.53507162 0.00000000 0.00000000 0.00000000 0.00000000 
071242360 0.00000000 0.00000000 0.19729952 115.47030132 0.00000000 0.00000000 0.00000000 0.00000000 
071278900 0.00000000 0.00000000 0.19965238 115.73351775 0.00000000 0.00000000 0.00000000 0.00000000 
071315440 0.00000000 0.00000000 0.19983398 115.67561288 0.00000000 0.00000000 0.00000000 0.00000000 
071351980 0.00000000 0.00000000 0.20037331 115.61441961 0.00000000 0.00000000 0.00000000 0.00000000 
071388520 0.00000000 0.00000000 0.19988496 115.88506165 0.00000000 0.00000000 0.00000000 0.00000000 
071425060 0.00000000 0.00000000 0.20079368 115.82057941 0.00000000 0.00000000 0.00000000 0.00000000 
071461600 0.00000000 0.00000000 0.20001668 115.75805360 0.00000000 0.00000000 0.00000000 0.00000000 
071498140 0.00000000 0.00000000 0.20165807 116.03302370 0.00000000 0.00000000 0.00000000 0.00000000 
071534680 0.00000000 0.00000000 0.20090015 115.97047511 0.00000000 0.00000000 0.00000000 0.00000000 
071571220 0.00000000 0.00000000 0.20403545 116.21835953 0.00000000 0.00000000 0.00000000 0.00000000 
071607760 0.00000000 0.00000000 0.20429252 116.16044458 0.00000000 0.00000000 0.00000000 0.00000000 
071644300 0.00000000 0.00000000 0.20257403 116.09321024 0.00000000 0.00000000 0.00000000 0.00000000 
071680840 0.00000000 0.00000000 0.20513461 116.37484593 0.00000000 0.00000000 0.00000000 0.00000000 
071717380 0.00000000 0.00000000 0.20527827 116.31132066 0.00000000 0.00000000 0.00000000 0.00000000 
071753920 0.00000000 0.00000000 0.20408754 116.24637944 0.00000000 0.00000000 0.00000000 0.00000000 
071790460 0.00000000 0.00000000 0.20451426 116.51258594 0.00000000 0.00000000 0.00000000 0.00000000 
071827000 0.00000000 0.00000000 0.20411565 116.46118189 0.00000000 0.00000000 0.00000000 0.00000000 
071863540 0.00000000 0.00000000 0.20344887 116.39854992 0.00000000 0.00000000 0.00000000 0.00000000 
071900080 0.00000000 0.00000000 0.20747873 116.65968109 0.00000000 0.00000000 0.00000000 0.00000000 
071936620 0.00000000 0.00000000 0.20598111 116.59793877 0.00000000 0.00000000 0.00000000 0.00000000 
071973160 0.00000000 0.00000000 0.20472848 116.86743678 0.00000000 0.00000000 0.00000000 0.00000000 
072009700 0.00000000 0.00000000 0.20482086 116.79826806 0.00000000 0.00000000 0.00000000 0.00000000 
072046240 0.00000000 0.00000000 0.20469916 116.73796571 0.00000000 0.00000000 0.00000000 0.00000000 
072082780 0.00000000 0.00000000 0.20765281 117.00397600 0.00000000 0.00000000 0.00000000 0.00000000 
072119320 0.00000000 0.00000000 0.20669802 116.94453846 0.00000000 0.00000000 0.00000000 0.00000000 
072155860 0.00000000 0.00000000 0.20647453 116.87860795 0.00000000 0.00000000 0.00000000 0.00000000 
072192400 0.00000000 0.00000000 0.20726200 117.14780972 0.00000000 0.00000000 0.00000000 0.00000000 
072228940 0.00000000 0.00000000 0.20804109 117.08663880 0.00000000 0.00000000 0.00000000 0.00000000 
072265480 0.00000000 0.00000000 0.20723712 117.35171764 0.00000000 0.00000000 0.00000000 0.00000000 
072302020 0.00000000 0.00000000 0.20596676 117.29544838 0.00000000 0.00000000 0.00000000 0.00000000 
072338560 0.00000000 0.00000000 0.20530656 117.22707490 0.00000000 0.00000000 0.00000000 0.00000000 
072375100 0.00000000 0.00000000 0.20711452 117.49950662 0.00000000 0.00000000 0.00000000 0.00000000 
072411640 0.00000000 0.00000000 0.20769502 117.42707243 0.00000000 0.00000000 0.00000000 0.00000000 
072448180 0.00000000 0.00000000 0.20743854 117.37557476 0.00000000 0.00000000 0.00000000 0.00000000 
072484720 0.00000000 0.00000000 0.21026140 117.62738601 0.00000000 0.00000000 0.00000000 0.00000000 
072521260 0.00000000 0.00000000 0.20867960 117.57426672 0.00000000 0.00000000 0.00000000 0.00000000 
072557800 0.00000000 0.00000000 0.20637698 117.50743321 0.00000000 0.00000000 0.00000000 0.00000000 
072594340 0.00000000 0.00000000 0.21011797 117.78750990 0.00000000 0.00000000 0.00000000 0.00000000 
072630880 0.00000000 0.00000000 0.21015082 117.72713663 0.00000000 0.00000000 0.00000000 0.00000000 
072667420 0.00000000 0.00000000 0.21011673 117.98675551 0.00000000 0.00000000 0.00000000 0.00000000 
072703960 0.00000000 0.00000000 0.20931454 117.92714627 0.00000000 0.00000000 0.00000000 0.00000000 
072740500 0.00000000 0.00000000 0.20889147 117.86432316 0.00000000 0.00000000 0.00000000 0.00000000 
072777040 0.00000000 0.00000000 0.20969811 118.12975679 0.00000000 0.00000000 0.00000000 0.00000000 
072813580 0.00000000 0.00000000 0.20941016 118.07256264 0.00000000 0.00000000 0.00000000 0.00000000 
072850120 0.00000000 0.00000000 0.20987362 118.00897400 0.00000000 0.00000000 0.00000000 0.00000000 
072886660 0.00000000 0.00000000 0.20913742 118.27617425 0.00000000 0.00000000 0.00000000 0.00000000 
072923200 0.00000000 0.00000000 0.20839271 118.21650225 0.00000000 0.00000000 0.00000000 0.00000000 
072959740 0.00000000 0.00000000 0.20851382 118.15609207 0.00000000 0.00000000 0.00000000 0.00000000 
072996280 0.00000000 0.00000000 0.20944722 118.41080255 0.00000000 0.00000000 0.00000000 0.00000000 
073032820 0.00000000 0.00000000 0.20750065 118.35500511 0.00000000 0.00000000 0.00000000 0.00000000 
073069360 0.00000000 0.00000000 0.20850219 118.62093294 0.00000000 0.00000000 0.00000000 0.00000000 
073105900 0.00000000 0.00000000 0.20780645 118.56120546 0.00000000 0.00000000 0.00000000 0.00000000 
073142440 0.00000000 0.00000000 0.20760171 118.50394778 0.00000000 0.00000000 0.00000000 0.00000000 
073178980 0.00000000 0.00000000 0.20858236 118.76983305 0.00000000 0.00000000 0.00000000 0.00000000 
073215520 0.00000000 0.00000000 0.20732895 118.70193331 0.00000000 0.00000000 0.00000000 0.00000000 
073252060 0.00000000 0.00000000 0.20715170 118.64465516 0.00000000 0.00000000 0.00000000 0.00000000 
073288600 0.00000000 0.00000000 0.20994074 118.90900017 0.00000000 0.00000000 0.00000000 0.00000000 
073325140 0.00000000 0.00000000 0.20968004 118.84605867 0.00000000 0.00000000 0.00000000 0.00000000 
073361680 0.00000000 0.00000000 0.20895046 118.78061301 0.00000000 0.00000000 0.00000000 0.00000000 
073398220 0.00000000 0.00000000 0.20829656 119.05157770 0.00000000 0.00000000 0.00000000 0.00000000 
073434760 0.00000000 0.00000000 0.20854551 118.99110882 0.00000000 0.00000000 0.00000000 0.00000000 
073471300 0.00000000 0.00000000 0.21024314 119.25735337 0.00000000 0.00000000 0.00000000 0.00000000 
073507840 0.00000000 0.00000000 0.21041475 119.19122469 0.00000000 0.00000000 0.00000000 0.00000000 
073544380 0.00000000 0.00000000 0.21078937 119.13643381 0.00000000 0.00000000 0.00000000 0.00000000 
073580920 0.00000000 0.00000000 0.21013195 119.40260134 0.00000000 0.00000000 0.00000000 0.00000000 
073617460 0.00000000 0.00000000 0.20975872 119.35409124 0.00000000 0.00000000 0.00000000 0.00000000 
073654000 0.00000000 0.00000000 0.20699900 119.31877187 0.00000000 0.00000000 0.00000000 0.00000000 
073690540 0.00000000 0.00000000 0.21241505 119.55703588 0.00000000 0.00000000 0.00000000 0.00000000 
073727080 0.00000000 0.00000000 0.21264920 119.49090004 0.00000000 0.00000000 0.00000000 0.00000000 
073763620 0.00000000 0.00000000 0.21173576 119.75076618 0.00000000 0.00000000 0.00000000 0.00000000 
073800160 0.00000000 0.00000000 0.21285255 119.68403205 0.00000000 0.00000000 0.00000000 0.00000000 
073836700 0.00000000 0.00000000 0.21110262 119.62786973 0.00000000 0.00000000 0.00000000 0.00000000 
073873240 0.00000000 0.00000000 0.21136476 119.89085832 0.00000000 0.00000000 0.00000000 0.00000000 
073909780 0.00000000 0.00000000 0.21126722 119.82782869 0.00000000 0.00000000 0.00000000 0.00000000 
073946320 0.00000000 0.00000000 0.21040501 119.77104232 0.00000000 0.00000000 0.00000000 0.00000000 
073982860 0.00000000 0.00000000 0.21517749 120.03359457 0.00000000 0.00000000 0.00000000 0.00000000 
074019400 0.00000000 0.00000000 0.21433337 119.97679592 0.00000000 0.00000000 0.00000000 0.00000000 
074055940 0.00000000 0.00000000 0.21263636 119.92053478 0.00000000 0.00000000 0.00000000 0.00000000 
074092480 0.00000000 0.00000000 0.21299979 120.18451351 0.00000000 0.00000000 0.00000000 0.00000000 
074129020 0.00000000 0.00000000 0.21382468 120.12091881 0.00000000 0.00000000 0.00000000 0.00000000 
074165560 0.00000000 0.00000000 0.21319675 120.38817931 0.00000000 0.00000000 0.00000000 0.00000000 
074202100 0.00000000 0.00000000 0.21278977 120.32822366 0.00000000 0.00000000 0.00000000 0.00000000 
074238640 0.00000000 0.00000000 0.21184369 120.25999138 0.00000000 0.00000000 0.00000000 0.00000000 
074275180 0.00000000 0.00000000 0.21518547 120.52538157 0.00000000 0.00000000 0.00000000 0.00000000 
074311720 0.00000000 0.00000000 0.21441539 120.46850219 0.00000000 0.00000000 0.00000000 0.00000000 
074348260 0.00000000 0.00000000 0.21271555 120.40642236 0.00000000 0.00000000 0.00000000 0.00000000 
074384800 0.00000000 0.00000000 0.21548448 120.67429527 0.00000000 0.00000000 0.00000000 0.00000000 
074421340 0.00000000 0.00000000 0.21474125 120.61738747 0.00000000 0.00000000 0.00000000 0.00000000 
074457880 0.00000000 0.00000000 0.21346556 120.55217206 0.00000000 0.00000000 0.00000000 0.00000000 
074494420 0.00000000 0.00000000 0.21549333 120.80450210 0.00000000 0.00000000 0.00000000 0.00000000 
074530960 0.00000000 0.00000000 0.21298013 120.74280932 0.00000000 0.00000000 0.00000000 0.00000000 
074567500 0.00000000 0.00000000 0.21464472 121.01229334 0.00000000 0.00000000 0.00000000 0.00000000 
074604040 0.00000000 0.00000000 0.21301461 120.95009478 0.00000000 0.00000000 0.00000000 0.00000000 
074640580 0.00000000 0.00000000 0.21272432 120.89004606 0.00000000 0.00000000 0.00000000 0.00000000 
074677120 0.00000000 0.00000000 0.21352748 121.15219481 0.00000000 0.00000000 0.00000000 0.00000000 
074713660 0.00000000 0.00000000 0.21378882 121.10046146 0.00000000 0.00000000 0.00000000 0.00000000 
074750200 0.00000000 0.00000000 0.21219759 121.03819809 0.00000000 0.00000000 0.00000000 0.00000000 
074786740 0.00000000 0.00000000 0.21559882 121.30012251 0.00000000 0.00000000 0.00000000 0.00000000 
074823280 0.00000000 0.00000000 0.21542072 121.24574480 0.00000000 0.00000000 0.00000000 0.00000000 
074859820 0.00000000 0.00000000 0.21552542 121.17690146 0.00000000 0.00000000 0.00000000 0.00000000 
074896360 0.00000000 0.00000000 0.21522609 121.44057123 0.00000000 0.00000000 0.00000000 0.00000000 
074932900 0.00000000 0.00000000 0.21414937 121.38088009 0.00000000 0.00000000 0.00000000 0.00000000 
074969440 0.00000000 0.00000000 0.21443190 121.65299956 0.00000000 0.00000000 0.00000000 0.00000000 
075005980 0.00000000 0.00000000 0.21417982 121.58718265 0.00000000 0.00000000 0.00000000 0.00000000 
075042520 0.00000000 0.00000000 0.21399728 121.52706901 0.00000000 0.00000000 0.00000000 0.00000000 
075079060 0.00000000 0.00000000 0.21733760 121.78091447 0.00000000 0.00000000 0.00000000 0.00000000 
075115600 0.00000000 0.00000000 0.21757868 121.71775645 0.00000000 0.00000000 0.00000000 0.00000000 
075152140 0.00000000 0.00000000 0.21604422 121.64962272 0.00000000 0.00000000 0.00000000 0.00000000 
075188680 0.00000000 0.00000000 0.21766436 121.92620082 0.00000000 0.00000000 0.00000000 0.00000000 
075225220 0.00000000 0.00000000 0.21712478 121.86909824 0.00000000 0.00000000 0.00000000 0.00000000 
075261760 0.00000000 0.00000000 0.21608196 121.80359487 0.00000000 0.00000000 0.00000000 0.00000000 
075298300 0.00000000 0.00000000 0.21830635 122.08458628 0.00000000 0.00000000 0.00000000 0.00000000 
075334840 0.00000000 0.00000000 0.21769014 122.01602763 0.00000000 0.00000000 0.00000000 0.00000000 
075371380 0.00000000 0.00000000 0.21814073 122.28622929 0.00000000 0.00000000 0.00000000 0.00000000 
075407920 0.00000000 0.00000000 0.21673019 122.22368786 0.00000000 0.00000000 0.00000000 0.00000000 
075444460 0.00000000 0.00000000 0.21665376 122.16350887 0.00000000 0.00000000 0.00000000 0.00000000 
075481000 0.00000000 0.00000000 0.21696157 122.42848042 0.00000000 0.00000000 0.00000000 0.00000000 
075517540 0.00000000 0.00000000 0.21649363 122.37130830 0.00000000 0.00000000 0.00000000 0.00000000 
075554080 0.00000000 0.00000000 0.21635426 122.29968522 0.00000000 0.00000000 0.00000000 0.00000000 
075590620 0.00000000 0.00000000 0.21750714 122.56778098 0.00000000 0.00000000 0.00000000 0.00000000 
075627160 0.00000000 0.00000000 0.21706767 122.51058914 0.00000000 0.00000000 0.00000000 0.00000000 
075663700 0.00000000 0.00000000 0.21896475 122.76692220 0.00000000 0.00000000 0.00000000 0.00000000 
075700240 0.00000000 0.00000000 0.21763485 122.70426863 0.00000000 0.00000000 0.00000000 0.00000000 
075736780 0.00000000 0.00000000 0.21676923 122.64432313 0.00000000 0.00000000 0.00000000 0.00000000 
075773320 0.00000000 0.00000000 0.21892757 122.92487182 0.00000000 0.00000000 0.00000000 0.00000000 
075809860 0.00000000 0.00000000 0.21807964 122.86491287 0.00000000 0.00000000 0.00000000 0.00000000 
075846400 0.00000000 0.00000000 0.21633531 122.79946894 0.00000000 0.00000000 0.00000000 0.00000000 
075882940 0.00000000 0.00000000 0.21565053 123.05838140 0.00000000 0.00000000 0.00000000 0.00000000 
075919480 0.00000000 0.00000000 0.21524851 122.99539198 0.00000000 0.00000000 0.00000000 0.00000000 
075956020 0.00000000 0.00000000 0.21576029 122.93789166 0.00000000 0.00000000 0.00000000 0.00000000 
075992560 0.00000000 0.00000000 0.21672411 123.21304116 0.00000000 0.00000000 0.00000000 0.00000000 
076029100 0.00000000 0.00000000 0.21593324 123.15301091 0.00000000 0.00000000 0.00000000 0.00000000 
076065640 0.00000000 0.00000000 0.21717705 123.41583938 0.00000000 0.00000000 0.00000000 0.00000000 
076102180 0.00000000 0.00000000 0.21724252 123.34984588 0.00000000 0.00000000 0.00000000 0.00000000 
076138720 0.00000000 0.00000000 0.21606247 123.29275170 0.00000000 0.00000000 0.00000000 0.00000000 
076175260 0.00000000 0.00000000 0.21625016 123.55467637 0.00000000 0.00000000 0.00000000 0.00000000 
076211800 0.00000000 0.00000000 0.21598626 123.50309404 0.00000000 0.00000000 0.00000000 0.00000000 
076248340 0.00000000 0.00000000 0.21606585 123.43135497 0.00000000 0.00000000 0.00000000 0.00000000 
076284880 0.00000000 0.00000000 0.21764306 123.70119773 0.00000000 0.00000000 0.00000000 0.00000000 
076321420 0.00000000 0.00000000 0.21516483 123.63569606 0.00000000 0.00000000 0.00000000 0.00000000 
076357960 0.00000000 0.00000000 0.21533089 123.57539629 0.00000000 0.00000000 0.00000000 0.00000000 
076394500 0.00000000 0.00000000 0.21607910 123.83931864 0.00000000 0.00000000 0.00000000 0.00000000 
076431040 0.00000000 0.00000000 0.21626485 123.77902070 0.00000000 0.00000000 0.00000000 0.00000000 
076467580 0.00000000 0.00000000 0.21728730 124.03603109 0.00000000 0.00000000 0.00000000 0.00000000 
076504120 0.00000000 0.00000000 0.21573163 123.97027827 0.00000000 0.00000000 0.00000000 0.00000000 
076540660 0.00000000 0.00000000 0.21554302 123.91864389 0.00000000 0.00000000 0.00000000 0.00000000 
076577200 0.00000000 0.00000000 0.21809053 124.19026606 0.00000000 0.00000000 0.00000000 0.00000000 
076613740 0.00000000 0.00000000 0.21743532 124.12434069 0.00000000 0.00000000 0.00000000 0.00000000 
076650280 0.00000000 0.00000000 0.21506906 124.06437854 0.00000000 0.00000000 0.00000000 0.00000000 
076686820 0.00000000 0.00000000 0.21747920 124.33285806 0.00000000 0.00000000 0.00000000 0.00000000 
076723360 0.00000000 0.00000000 0.21600185 124.27274371 0.00000000 0.00000000 0.00000000 0.00000000 
076759900 0.00000000 0.00000000 0.21584700 124.21533114 0.00000000 0.00000000 0.00000000 0.00000000 
076796440 0.00000000 0.00000000 0.21651085 124.48487857 0.00000000 0.00000000 0.00000000 0.00000000 
076832980 0.00000000 0.00000000 0.21547698 124.41606143 0.00000000 0.00000000 0.00000000 0.00000000 
076869520 0.00000000 0.00000000 0.21748827 124.67509226 0.00000000 0.00000000 0.00000000 0.00000000 
076906060 0.00000000 0.00000000 0.21823023 124.61184320 0.00000000 0.00000000 0.00000000 0.00000000 
076942600 0.00000000 0.00000000 0.21594051 124.55171396 0.00000000 0.00000000 0.00000000 0.00000000 
076979140 0.00000000 0.00000000 0.21479550 124.83013379 0.00000000 0.00000000 0.00000000 0.00000000 
077015680 0.00000000 0.00000000 0.21469604 124.76693195 0.00000000 0.00000000 0.00000000 0.00000000 
077052220 0.00000000 0.00000000 0.21547816 124.70367860 0.00000000 0.00000000 0.00000000 0.00000000 
077088760 0.00000000 0.00000000 0.21865948 124.97176336 0.00000000 0.00000000 0.00000000 0.00000000 
077125300 0.00000000 0.00000000 0.21772546 124.91434256 0.00000000 0.00000000 0.00000000 0.00000000 
077161840 0.00000000 0.00000000 0.21853504 125.17144550 0.00000000 0.00000000 0.00000000 0.00000000 
077198380 0.00000000 0.00000000 0.21674510 125.10828912 0.00000000 0.00000000 0.00000000 0.00000000 
077234920 0.00000000 0.00000000 0.21671101 125.05081606 0.00000000 0.00000000 0.00000000 0.00000000 
077271460 0.00000000 0.00000000 0.21634353 125.31515151 0.00000000 0.00000000 0.00000000 0.00000000 
077308000 0.00000000 0.00000000 0.21153645 125.27209051 0.00000000 0.00000000 0.00000000 0.00000000 
077344540 0.00000000 0.00000000 0.21588406 125.19731330 0.00000000 0.00000000 0.00000000 0.00000000 
077381080 0.00000000 0.00000000 0.21705331 125.45578542 0.00000000 0.00000000 0.00000000 0.00000000 
077417620 0.00000000 0.00000000 0.21575897 125.39540286 0.00000000 0.00000000 0.00000000 0.00000000 
077454160 0.00000000 0.00000000 0.21621753 125.33503699 0.00000000 0.00000000 0.00000000 0.00000000 
077490700 0.00000000 0.00000000 0.21769676 125.60021784 0.00000000 0.00000000 0.00000000 0.00000000 
077527240 0.00000000 0.00000000 0.21730287 125.53981738 0.00000000 0.00000000 0.00000000 0.00000000 
077563780 0.00000000 0.00000000 0.21795777 125.80431271 0.00000000 0.00000000 0.00000000 0.00000000 
077600320 0.00000000 0.00000000 0.21758360 125.74389842 0.00000000 0.00000000 0.00000000 0.00000000 
077636860 0.00000000 0.00000000 0.21677943 125.68633127 0.00000000 0.00000000 0.00000000 0.00000000 
077673400 0.00000000 0.00000000 0.21861649 125.95189303 0.00000000 0.00000000 0.00000000 0.00000000 
077709940 0.00000000 0.00000000 0.21696690 125.88848786 0.00000000 0.00000000 0.00000000 0.00000000 
077746480 0.00000000 0.00000000 0.21620008 125.82512516 0.00000000 0.00000000 0.00000000 0.00000000 
077783020 0.00000000 0.00000000 0.21724999 126.09557995 0.00000000 0.00000000 0.00000000 0.00000000 
077819560 0.00000000 0.00000000 0.21694605 126.02935388 0.00000000 0.00000000 0.00000000 0.00000000 
077856100 0.00000000 0.00000000 0.21532535 125.97162922 0.00000000 0.00000000 0.00000000 0.00000000 
077892640 0.00000000 0.00000000 0.21748994 126.23760422 0.00000000 0.00000000 0.00000000 0.00000000 
077929180 0.00000000 0.00000000 0.21590142 126.17409741 0.00000000 0.00000000 0.00000000 0.00000000 
077965720 0.00000000 0.00000000 0.21751594 126.43538015 0.00000000 0.00000000 0.00000000 0.00000000 
078002260 0.00000000 0.00000000 0.22159526 126.38117530 0.00000000 0.00000000 0.00000000 0.00000000 
078038800 0.00000000 0.00000000 0.21654619 126.31718553 0.00000000 0.00000000 0.00000000 0.00000000 
078075340 0.00000000 0.00000000 0.21813695 126.58526217 0.00000000 0.00000000 0.00000000 0.00000000 
078111880 0.00000000 0.00000000 0.21572620 126.52154687 0.00000000 0.00000000 0.00000000 0.00000000 
078148420 0.00000000 0.00000000 0.21505156 126.46382439 0.00000000 0.00000000 0.00000000 0.00000000 
078184960 0.00000000 0.00000000 0.21548855 126.73759929 0.00000000 0.00000000 0.00000000 0.00000000 
078221500 0.00000000 0.00000000 0.21532341 126.66553286 0.00000000 0.00000000 0.00000000 0.00000000 
078258040 0.00000000 0.00000000 0.21380409 126.60763351 0.00000000 0.00000000 0.00000000 0.00000000 
078294580 0.00000000 0.00000000 0.21602578 126.86062252 0.00000000 0.00000000 0.00000000 0.00000000 
078331120 0.00000000 0.00000000 0.21452432 126.80269124 0.00000000 0.00000000 0.00000000 0.00000000 
078367660 0.00000000 0.00000000 0.21741037 127.07199215 0.00000000 0.00000000 0.00000000 0.00000000 
078404200 0.00000000 0.00000000 0.21592679 127.01402942 0.00000000 0.00000000 0.00000000 0.00000000 
078440740 0.00000000 0.00000000 0.21490249 126.95325695 0.00000000 0.00000000 0.00000000 0.00000000 
078477280 0.00000000 0.00000000 0.21593243 127.22460342 0.00000000 0.00000000 0.00000000 0.00000000 
078513820 0.00000000 0.00000000 0.21628129 127.15545085 0.00000000 0.00000000 0.00000000 0.00000000 
078550360 0.00000000 0.00000000 0.21616015 127.09484632 0.00000000 0.00000000 0.00000000 0.00000000 
078586900 0.00000000 0.00000000 0.21549386 127.35498369 0.00000000 0.00000000 0.00000000 0.00000000 
078623440 0.00000000 0.00000000 0.21581373 127.29735255 0.00000000 0.00000000 0.00000000 0.00000000 
078659980 0.00000000 0.00000000 0.21439505 127.23928627 0.00000000 0.00000000 0.00000000 0.00000000 
078696520 0.00000000 0.00000000 0.21488293 127.50682607 0.00000000 0.00000000 0.00000000 0.00000000 
078733060 0.00000000 0.00000000 0.21481008 127.44618114 0.00000000 0.00000000 0.00000000 0.00000000 
078769600 0.00000000 0.00000000 0.21678344 127.71434688 0.00000000 0.00000000 0.00000000 0.00000000 
078806140 0.00000000 0.00000000 0.21456308 127.65020450 0.00000000 0.00000000 0.00000000 0.00000000 
078842680 0.00000000 0.00000000 0.21493759 127.59254670 0.00000000 0.00000000 0.00000000 0.00000000 
078879220 0.00000000 0.00000000 0.21555683 127.85401733 0.00000000 0.00000000 0.00000000 0.00000000 
078915760 0.00000000 0.00000000 0.21332703 127.79557537 0.00000000 0.00000000 0.00000000 0.00000000 
078952300 0.00000000 0.00000000 0.21331189 127.73488988 0.00000000 0.00000000 0.00000000 0.00000000 
078988840 0.00000000 0.00000000 0.21416482 127.99392970 0.00000000 0.00000000 0.00000000 0.00000000 
079025380 0.00000000 0.00000000 0.21333848 127.92718316 0.00000000 0.00000000 0.00000000 0.00000000 
079061920 0.00000000 0.00000000 0.21450347 128.20150006 0.00000000 0.00000000 0.00000000 0.00000000 
079098460 0.00000000 0.00000000 0.21365354 128.14050048 0.00000000 0.00000000 0.00000000 0.00000000 
079135000 0.00000000 0.00000000 0.21322793 128.08252275 0.00000000 0.00000000 0.00000000 0.00000000 
079171540 0.00000000 0.00000000 0.21334634 128.35503832 0.00000000 0.00000000 0.00000000 0.00000000 
079208080 0.00000000 0.00000000 0.21386010 128.29158628 0.00000000 0.00000000 0.00000000 0.00000000 
079244620 0.00000000 0.00000000 0.21304884 128.23054939 0.00000000 0.00000000 0.00000000 0.00000000 
079281160 0.00000000 0.00000000 0.21464765 128.48997192 0.00000000 0.00000000 0.00000000 0.00000000 
079317700 0.00000000 0.00000000 0.21426911 128.43196164 0.00000000 0.00000000 0.00000000 0.00000000 
079354240 0.00000000 0.00000000 0.21343677 128.37666264 0.00000000 0.00000000 0.00000000 0.00000000 
079390780 0.00000000 0.00000000 0.21389637 128.63552762 0.00000000 0.00000000 0.00000000 0.00000000 
079427320 0.00000000 0.00000000 0.21225958 128.57409330 0.00000000 0.00000000 0.00000000 0.00000000 
079463860 0.00000000 0.00000000 0.21604690 128.83508059 0.00000000 0.00000000 0.00000000 0.00000000 
079500400 0.00000000 0.00000000 0.21617874 128.77433400 0.00000000 0.00000000 0.00000000 0.00000000 
079536940 0.00000000 0.00000000 0.21451587 128.71862467 0.00000000 0.00000000 0.00000000 0.00000000 
079573480 0.00000000 0.00000000 0.21550085 128.99090728 0.00000000 0.00000000 0.00000000 0.00000000 
079610020 0.00000000 0.00000000 0.21577572 128.91860727 0.00000000 0.00000000 0.00000000 0.00000000 
079646560 0.00000000 0.00000000 0.21501444 128.86323118 0.00000000 0.00000000 0.00000000 0.00000000 
079683100 0.00000000 0.00000000 0.21252961 129.12840827 0.00000000 0.00000000 0.00000000 0.00000000 
079719640 0.00000000 0.00000000 0.21143826 129.06414763 0.00000000 0.00000000 0.00000000 0.00000000 
079756180 0.00000000 0.00000000 0.21035771 128.99987092 0.00000000 0.00000000 0.00000000 0.00000000 
079792720 0.00000000 0.00000000 0.21375345 129.27068799 0.00000000 0.00000000 0.00000000 0.00000000 
079829260 0.00000000 0.00000000 0.21437947 129.21298598 0.00000000 0.00000000 0.00000000 0.00000000 
079865800 0.00000000 0.00000000 0.21437380 129.47090546 0.00000000 0.00000000 0.00000000 0.00000000 
079902340 0.00000000 0.00000000 0.21373897 129.40967610 0.00000000 0.00000000 0.00000000 0.00000000 
079938880 0.00000000 0.00000000 0.21311402 129.34843786 0.00000000 0.00000000 0.00000000 0.00000000 
079975420 0.00000000 0.00000000 0.21908367 129.58577265 0.00000000 0.00000000 0.00000000 0.00000000 
080011960 0.00000000 0.00000000 0.21807401 129.52140827 0.00000000 0.00000000 0.00000000 0.00000000 
080048500 0.00000000 0.00000000 0.21747825 129.46014107 0.00000000 0.00000000 0.00000000 0.00000000 
080085040 0.00000000 0.00000000 0.21476725 129.75265662 0.00000000 0.00000000 0.00000000 0.00000000 
080121580 0.00000000 0.00000000 0.21371903 129.69402234 0.00000000 0.00000000 0.00000000 0.00000000 
080158120 0.00000000 0.00000000 0.21402778 129.63319621 0.00000000 0.00000000 0.00000000 0.00000000 
080194660 0.00000000 0.00000000 0.21496324 129.89861799 0.00000000 0.00000000 0.00000000 0.00000000 
080231200 0.00000000 0.00000000 0.21441700 129.83730429 0.00000000 0.00000000 0.00000000 0.00000000 
080267740 0.00000000 0.00000000 0.21612651 130.11018592 0.00000000 0.00000000 0.00000000 0.00000000 
080304280 0.00000000 0.00000000 0.21519988 130.04572021 0.00000000 0.00000000 0.00000000 0.00000000 
080340820 0.00000000 0.00000000 0.21420789 129.98701173 0.00000000 0.00000000 0.00000000 0.00000000 
080377360 0.00000000 0.00000000 0.21351345 130.25109907 0.00000000 0.00000000 0.00000000 0.00000000 
080413900 0.00000000 0.00000000 0.21436733 130.18761695 0.00000000 0.00000000 0.00000000 0.00000000 
080450440 0.00000000 0.00000000 0.21340331 130.12887464 0.00000000 0.00000000 0.00000000 0.00000000 
080486980 0.00000000 0.00000000 0.21499225 130.40515193 0.00000000 0.00000000 0.00000000 0.00000000 
080523520 0.00000000 0.00000000 0.21285482 130.33693042 0.00000000 0.00000000 0.00000000 0.00000000 
080560060 0.00000000 0.00000000 0.21538879 130.59661784 0.00000000 0.00000000 0.00000000 0.00000000 
080596600 0.00000000 0.00000000 0.21485873 130.54098257 0.00000000 0.00000000 0.00000000 0.00000000 
080633140 0.00000000 0.00000000 0.21267082 130.47846581 0.00000000 0.00000000 0.00000000 0.00000000 
080669680 0.00000000 0.00000000 0.21511216 130.74454714 0.00000000 0.00000000 0.00000000 0.00000000 
080706220 0.00000000 0.00000000 0.21421326 130.68572242 0.00000000 0.00000000 0.00000000 0.00000000 
080742760 0.00000000 0.00000000 0.21428458 130.62168597 0.00000000 0.00000000 0.00000000 0.00000000 